TITLE = PHILL
VARIABLES = "X" ,  "Y" , "ub" , "vb" , "pb" , "nut-SA" 
ZONE   N=30621,E=60544,F=FEPOINT,ET=TRIANGLE
0 1 2.70566e-41 -2.36279e-39 -0.171992 2.13032e-42
0.0535714 1 4.54023e-42 -3.9566e-39 -0.160791 -6.38603e-42
0.107143 1 -8.59107e-41 -2.7282e-39 -0.155627 4.91252e-42
0.160714 0.997986 -2.67727e-40 -3.49631e-39 -0.151393 -8.16373e-43
0.214286 0.992322 -5.02175e-40 -3.40074e-39 -0.134152 -2.52766e-42
0.267857 0.9816 -6.74994e-40 -2.55293e-39 -0.111573 2.66744e-42
0.321429 0.964286 -1.06206e-39 -2.58709e-39 -0.0968334 -1.04721e-42
0 1.00336 0.11935 -0.000340121 -0.172064 6.97538e-05
0.0535714 1.00336 0.14151 -0.000596948 -0.16078 6.93971e-05
0.107143 1.00336 0.159756 -0.00291813 -0.155474 7.07439e-05
0.160714 1.00135 0.137132 -0.00964509 -0.15104 6.84486e-05
0.214286 0.995697 0.0616216 -0.00891259 -0.134071 6.07388e-05
0.267857 0.984994 -0.0223945 0.00627326 -0.111994 5.01548e-05
0.321429 0.967708 -0.058887 0.0244117 -0.0973156 3.72127e-05
0 1.00683 0.289852 -0.00140656 -0.172069 0.00016197
0.0535714 1.00683 0.309109 -0.00155221 -0.160864 0.000155555
0.107143 1.00683 0.328324 -0.00446535 -0.155557 0.000148028
0.160714 1.00482 0.29946 -0.0160519 -0.150965 0.000142207
0.214286 0.999177 0.187412 -0.0209659 -0.133971 0.000139463
0.267857 0.988492 0.0257293 -0.00236686 -0.112091 0.000122931
0.321429 0.971235 -0.0853062 0.0344558 -0.0974493 9.11704e-05
0 1.0104 0.446707 -0.00163583 -0.172 0.0002525
0.0535714 1.0104 0.451668 -0.00275163 -0.160805 0.000248475
0.107143 1.0104 0.46397 -0.0064298 -0.155299 0.000232909
0.160714 1.0084 0.439868 -0.0205674 -0.150577 0.000218441
0.214286 1.00276 0.329575 -0.0309108 -0.133809 0.000216611
0.267857 0.992097 0.131628 -0.0180622 -0.112163 0.000203592
0.321429 0.974871 -0.0632112 0.0292967 -0.0977666 0.000159679
0 1.01409 0.556999 -0.000452889 -0.171818 0.000325273
0.0535714 1.01409 0.547134 -0.00289112 -0.160844 0.000332153
0.107143 1.01409 0.551006 -0.00750787 -0.155029 0.000318599
0.160714 1.01208 0.5328 -0.02279 -0.149896 0.000294641
0.214286 1.00646 0.441934 -0.0364193 -0.133299 0.000288278
0.267857 0.995813 0.246889 -0.0314197 -0.111784 0.000277429
0.321429 0.978618 0.00097849 0.0133242 -0.0978816 0.000236815
0 1.01788 0.632752 0.00159704 -0.171355 0.000386353
0.0535714 1.01788 0.612257 -0.00242784 -0.160665 0.000404111
0.107143 1.01788 0.607907 -0.00800036 -0.154666 0.000399573
0.160714 1.01588 0.591575 -0.0235166 -0.149183 0.000371243
0.214286 1.01027 0.519901 -0.0380555 -0.132771 0.000354271
0.267857 0.999644 0.346513 -0.0390468 -0.111288 0.000342786
0.321429 0.982481 0.0807012 -0.00337389 -0.0976272 0.000308118
0 1.02179 0.68491 0.00425514 -0.170853 0.000443589
0.0535714 1.02179 0.6592 -0.00137451 -0.160364 0.00046853
0.107143 1.02179 0.648597 -0.00800977 -0.154116 0.000473573
0.160714 1.0198 0.631681 -0.0236514 -0.148349 0.000446946
0.214286 1.0142 0.573734 -0.0378061 -0.132248 0.000417837
0.267857 1.00359 0.427905 -0.0422246 -0.110904 0.000398387
0.321429 0.986463 0.161409 -0.01691 -0.0970183 0.000370068
0 1.02583 0.720465 0.00700841 -0.170289 0.000503182
0.0535714 1.02583 0.693769 5.44875e-05 -0.160006 0.000530781
0.107143 1.02583 0.67935 -0.00754369 -0.153492 0.000542738
0.160714 1.02384 0.661411 -0.0233495 -0.147434 0.00052098
0.214286 1.01825 0.612046 -0.0368138 -0.13178 0.000481312
0.267857 1.00766 0.493824 -0.0425438 -0.110743 0.000449029
0.321429 0.990567 0.238549 -0.0267228 -0.0962646 0.000425752
0 1.02999 0.744345 0.0096067 -0.169669 0.000571991
0.0535714 1.02999 0.719176 0.00162447 -0.15957 0.000595163
0.107143 1.02999 0.70303 -0.00676784 -0.152806 0.000610547
0.160714 1.028 0.684641 -0.0226541 -0.146425 0.000593853
0.214286 1.02242 0.640297 -0.0356556 -0.131321 0.000546454
0.267857 1.01186 0.546696 -0.0411614 -0.110749 0.000498352
0.321429 0.994797 0.310898 -0.0332326 -0.0956035 0.000473879
0 1.03427 0.760271 0.0119615 -0.169014 0.000652306
0.0535714 1.03427 0.737703 0.00321028 -0.15908 0.000666302
0.107143 1.03427 0.721259 -0.0058187 -0.152096 0.000680489
0.160714 1.03229 0.703229 -0.0215738 -0.145364 0.000667008
0.214286 1.02672 0.661912 -0.0345251 -0.13086 0.000615048
0.267857 1.01618 0.588567 -0.0388586 -0.110878 0.000549417
0.321429 0.999158 0.377915 -0.0370407 -0.0951132 0.000517149
0 1.03869 0.770973 0.0140566 -0.168308 0.000747242
0.0535714 1.03869 0.751137 0.00473749 -0.158528 0.00074813
0.107143 1.03869 0.735204 -0.00481569 -0.151361 0.000756736
0.160714 1.03671 0.718154 -0.0201656 -0.144273 0.000742746
0.214286 1.03116 0.679063 -0.0334504 -0.130364 0.000689076
0.267857 1.02064 0.621199 -0.0361659 -0.111107 0.000604663
0.321429 1.00365 0.439042 -0.0386635 -0.0948177 0.000557899
0 1.04324 0.778329 0.0159285 -0.167554 0.000858202
0.0535714 1.04324 0.76089 0.00618551 -0.157919 0.000843955
0.107143 1.04324 0.745825 -0.0038261 -0.150601 0.000844275
0.160714 1.04127 0.730037 -0.0185126 -0.143185 0.000824621
0.214286 1.03573 0.693126 -0.0323731 -0.129805 0.00077055
0.267857 1.02523 0.646214 -0.033455 -0.111422 0.000665755
0.321429 1.00829 0.493776 -0.0385444 -0.0947117 0.000598355
0 1.04793 0.783578 0.0176226 -0.166746 0.000984165
0.0535714 1.04793 0.768047 0.00755531 -0.157252 0.000955865
0.107143 1.04793 0.753934 -0.00287731 -0.149811 0.000946329
0.160714 1.04597 0.739378 -0.0167161 -0.142121 0.000916608
0.214286 1.04044 0.704962 -0.0312043 -0.129171 0.000861265
0.267857 1.02997 0.665141 -0.030975 -0.111801 0.000733797
0.321429 1.01306 0.54176 -0.037097 -0.0947672 0.000640751
0 1.05277 0.787513 0.0191847 -0.165885 0.00112312
0.0535714 1.05277 0.773417 0.00885882 -0.156535 0.00108293
0.107143 1.05277 0.760212 -0.00196393 -0.148981 0.00106341
0.160714 1.05081 0.746642 -0.0148765 -0.141098 0.00102189
0.214286 1.04529 0.7151 -0.0298622 -0.12846 0.000961406
0.267857 1.03485 0.679395 -0.0288709 -0.112223 0.000810915
0.321429 1.01798 0.582832 -0.0346952 -0.0949509 0.000688864
0 1.05776 0.79063 0.0206526 -0.164965 0.00127312
0.0535714 1.05776 0.777579 0.0101075 -0.155775 0.00122252
0.107143 1.05776 0.765196 -0.00106214 -0.148107 0.00119429
0.160714 1.0558 0.752284 -0.0130788 -0.140123 0.00114118
0.214286 1.0503 0.723869 -0.0282916 -0.127682 0.00107023
0.267857 1.03988 0.690237 -0.0272003 -0.112652 0.000899271
0.321429 1.02306 0.61706 -0.0316753 -0.0952554 0.000745103
0 1.0629 0.793235 0.022056 -0.163984 0.00143325
0.0535714 1.0629 0.780936 0.0113099 -0.154976 0.00137296
0.107143 1.0629 0.769282 -0.000142934 -0.147188 0.00133698
0.160714 1.06094 0.756723 -0.0113833 -0.139198 0.001273
0.214286 1.05546 0.731477 -0.0264724 -0.126857 0.0011872
0.267857 1.04507 0.698739 -0.0259478 -0.113046 0.00100002
0.321429 1.02829 0.644785 -0.0283481 -0.0956836 0.000811123
0 1.06819 0.795515 0.0234167 -0.162941 0.00160312
0.0535714 1.06819 0.783762 0.0124727 -0.154139 0.00153345
0.107143 1.06819 0.77275 0.000818586 -0.146224 0.00149009
0.160714 1.06625 0.760317 -0.00982218 -0.138313 0.0014159
0.214286 1.06077 0.738072 -0.0244197 -0.126015 0.0013128
0.267857 1.05041 0.705751 -0.0250381 -0.113361 0.00111431
0.321429 1.03368 0.666588 -0.0249937 -0.0962372 0.000888055
0 1.07365 0.797588 0.02475 -0.161835 0.00178258
0.0535714 1.07365 0.786244 0.0136012 -0.153264 0.00170364
0.107143 1.07365 0.775791 0.00183856 -0.145224 0.00165293
0.160714 1.07171 0.763358 -0.00840144 -0.137449 0.00156898
0.214286 1.06625 0.743774 -0.0221795 -0.125187 0.00144811
0.267857 1.05592 0.711898 -0.0243543 -0.113558 0.00124213
0.321429 1.03923 0.683241 -0.0218479 -0.0969146 0.000976303
0 1.07928 0.799525 0.0260655 -0.160668 0.00197161
0.0535714 1.07928 0.788509 0.0147013 -0.152347 0.00188339
0.107143 1.07928 0.778533 0.00292282 -0.144198 0.00182514
0.160714 1.07735 0.766067 -0.00710551 -0.136586 0.001732
0.214286 1.0719 0.748695 -0.0198195 -0.1244 0.00159449
0.267857 1.0616 0.717595 -0.0237604 -0.113609 0.00138252
0.321429 1.04496 0.695629 -0.0190923 -0.0976994 0.00107664
0 1.08509 0.801371 0.0273682 -0.159441 0.00217023
0.0535714 1.08509 0.790645 0.0157794 -0.151383 0.00207267
0.107143 1.08509 0.781066 0.00406798 -0.143154 0.00200659
0.160714 1.08316 0.768602 -0.00590432 -0.135706 0.00190518
0.214286 1.07773 0.752957 -0.017417 -0.123675 0.00175263
0.267857 1.06745 0.723078 -0.0231221 -0.113503 0.00153392
0.321429 1.05086 0.704678 -0.0168457 -0.0985599 0.00119088
0 1.09107 0.803158 0.0286597 -0.158159 0.00237852
0.0535714 1.09107 0.79271 0.0168431 -0.150368 0.00227153
0.107143 1.09107 0.783455 0.00526388 -0.142102 0.00219728
0.160714 1.08914 0.77107 -0.00476107 -0.134796 0.00208815
0.214286 1.08373 0.756687 -0.0150475 -0.12302 0.001922
0.267857 1.07349 0.728456 -0.0223266 -0.113249 0.00169513
0.321429 1.05695 0.711284 -0.0151609 -0.0994515 0.00132095
0 1.09723 0.804906 0.0299387 -0.156824 0.00259655
0.0535714 1.09723 0.794744 0.0178997 -0.149299 0.00248003
0.107143 1.09723 0.785747 0.0064966 -0.141047 0.00239729
0.160714 1.09531 0.773537 -0.00363881 -0.133848 0.00228066
0.214286 1.08992 0.760013 -0.0127749 -0.122435 0.00210189
0.267857 1.07971 0.733747 -0.0212951 -0.11287 0.00186571
0.321429 1.06322 0.716261 -0.0140253 -0.100321 0.00146714
0 1.10358 0.806631 0.0312025 -0.155439 0.00282441
0.0535714 1.10358 0.796772 0.0189561 -0.148174 0.00269824
0.107143 1.10358 0.787981 0.00775119 -0.13999 0.00260676
0.160714 1.10167 0.776038 -0.00250561 -0.132862 0.00248263
0.214286 1.0963 0.763058 -0.010645 -0.121902 0.00229187
0.267857 1.08612 0.738926 -0.0199901 -0.112407 0.00204454
0.321429 1.06969 0.720287 -0.0133684 -0.101111 0.00162811
0 1.11013 0.808346 0.0324475 -0.154005 0.00306219
0.0535714 1.11013 0.798811 0.0200181 -0.146993 0.00292627
0.107143 1.11013 0.79019 0.00901389 -0.138929 0.00282585
0.160714 1.10823 0.77859 -0.00133783 -0.131845 0.00269409
0.214286 1.10287 0.765932 -0.0086825 -0.121402 0.00249176
0.267857 1.09273 0.743952 -0.0184145 -0.111904 0.00223122
0.321429 1.07635 0.723887 -0.0130751 -0.101769 0.00180253
0 1.11688 0.810063 0.0336696 -0.152524 0.00331
0.0535714 1.11688 0.800873 0.0210895 -0.145759 0.00316421
0.107143 1.11688 0.792399 0.0102736 -0.137859 0.00305469
0.160714 1.11498 0.781196 -0.000121381 -0.130804 0.00291515
0.214286 1.10965 0.768728 -0.00689226 -0.120907 0.00270154
0.267857 1.09954 0.748788 -0.0166043 -0.1114 0.00242603
0.321429 1.08322 0.72743 -0.0130041 -0.102259 0.00198928
0 1.12384 0.81179 0.0348652 -0.150997 0.00356791
0.0535714 1.12384 0.802962 0.022172 -0.144474 0.00341215
0.107143 1.12384 0.794633 0.0115224 -0.136776 0.00329345
0.160714 1.12195 0.783853 0.00114852 -0.129751 0.00314594
0.214286 1.11663 0.771519 -0.00526243 -0.120395 0.00292134
0.267857 1.10656 0.753412 -0.0146187 -0.110927 0.00262988
0.321429 1.0903 0.731142 -0.0130084 -0.102565 0.00218752
0 1.13101 0.813539 0.036031 -0.149424 0.003836
0.0535714 1.13101 0.805085 0.0232655 -0.143143 0.00367021
0.107143 1.13101 0.796907 0.0127558 -0.135672 0.00354227
0.160714 1.12913 0.786559 0.00246877 -0.128694 0.0033866
0.214286 1.12383 0.774357 -0.0037693 -0.119848 0.00315149
0.267857 1.1138 0.757824 -0.0125283 -0.110501 0.00284418
0.321429 1.0976 0.735135 -0.0129541 -0.102694 0.00239696
0 1.13841 0.815316 0.0371642 -0.147805 0.00411437
0.0535714 1.13841 0.807245 0.0243678 -0.141768 0.00393849
0.107143 1.13841 0.799236 0.0139719 -0.134542 0.00380129
0.160714 1.13653 0.789311 0.00383043 -0.12764 0.00363729
0.214286 1.13125 0.777277 -0.00238261 -0.119255 0.00339241
0.267857 1.12126 0.762041 -0.0104046 -0.110125 0.0030702
0.321429 1.10512 0.739432 -0.0127344 -0.102669 0.00261938
0 1.14603 0.817131 0.0382627 -0.14614 0.00440306
0.0535714 1.14603 0.809446 0.0254752 -0.140355 0.00421711
0.107143 1.14603 0.801629 0.0151711 -0.133382 0.00407066
0.160714 1.14416 0.79211 0.00522104 -0.126592 0.0038982
0.214286 1.1389 0.780298 -0.00107045 -0.118611 0.00364425
0.267857 1.12895 0.766096 -0.00831053 -0.109791 0.00330858
0.321429 1.11287 0.744001 -0.0122785 -0.102524 0.00285418
0 1.15388 0.818991 0.0393247 -0.144431 0.00470215
0.0535714 1.15388 0.811691 0.0265832 -0.138906 0.00450615
0.107143 1.15388 0.804094 0.0163546 -0.132189 0.00435052
0.160714 1.15202 0.794959 0.00662679 -0.125548 0.0041695
0.214286 1.14678 0.783427 0.0001965 -0.117918 0.00390704
0.267857 1.13687 0.770031 -0.00629543 -0.109483 0.00355904
0.321429 1.12087 0.748777 -0.0115543 -0.102299 0.00310009
0 1.16198 0.820902 0.0403488 -0.142678 0.00501168
0.0535714 1.16198 0.813987 0.0276866 -0.137422 0.00480572
0.107143 1.16198 0.806635 0.0175241 -0.130963 0.00464101
0.160714 1.16012 0.797863 0.00803431 -0.124507 0.00445143
0.214286 1.15491 0.786664 0.00144221 -0.117183 0.00418088
0.267857 1.14504 0.773891 -0.00439189 -0.109182 0.00382124
0.321429 1.12911 0.753692 -0.0105649 -0.102033 0.00335631
0 1.17032 0.822871 0.0413338 -0.140884 0.00533171
0.0535714 1.17032 0.816338 0.0287798 -0.135906 0.00511593
0.107143 1.17032 0.809255 0.0186808 -0.129704 0.00494226
0.160714 1.16848 0.800829 0.00943192 -0.123463 0.00474419
0.214286 1.16329 0.790004 0.00268388 -0.116413 0.00446591
0.267857 1.15346 0.777721 -0.00261633 -0.108869 0.00409522
0.321429 1.1376 0.75868 -0.0093408 -0.101756 0.00362269
0 1.17892 0.824905 0.0422785 -0.139051 0.00566227
0.0535714 1.17892 0.818749 0.0298578 -0.134358 0.00543687
0.107143 1.17892 0.811955 0.0198253 -0.128414 0.00525442
0.160714 1.17709 0.803862 0.0108102 -0.122411 0.00504802
0.214286 1.17192 0.793441 0.00393183 -0.115616 0.00476236
0.267857 1.16214 0.781557 -0.000971105 -0.108527 0.00438117
0.321429 1.14635 0.763692 -0.00793043 -0.101483 0.00389957
0 1.18779 0.827008 0.0431816 -0.137181 0.0060034
0.0535714 1.18779 0.821227 0.0309157 -0.132778 0.00576864
0.107143 1.18779 0.814738 0.0209571 -0.127095 0.00557764
0.160714 1.18596 0.806971 0.0121623 -0.121344 0.00536314
0.214286 1.18082 0.796969 0.00519016 -0.114797 0.00507047
0.267857 1.17109 0.78543 0.000551916 -0.108148 0.00467935
0.321429 1.15537 0.768693 -0.00639015 -0.101218 0.00418763
0 1.19693 0.829187 0.0440418 -0.135277 0.00635513
0.0535714 1.19693 0.823777 0.0319489 -0.131167 0.00611134
0.107143 1.19693 0.817604 0.0220748 -0.125749 0.00591208
0.160714 1.19511 0.81016 0.0134833 -0.120259 0.0056898
0.214286 1.19 0.800583 0.00645811 -0.113961 0.00539052
0.267857 1.18031 0.789362 0.00196751 -0.107725 0.0049901
0.321429 1.16467 0.773666 -0.00477598 -0.100956 0.00448783
0 1.20635 0.831447 0.0448576 -0.133342 0.0067175
0.0535714 1.20635 0.826404 0.0329536 -0.129526 0.00646508
0.107143 1.20635 0.820556 0.0231759 -0.124377 0.00625791
0.160714 1.20454 0.813434 0.0147704 -0.119153 0.00602827
0.214286 1.19945 0.804281 0.00773152 -0.113108 0.00572282
0.267857 1.18982 0.793367 0.00329349 -0.10726 0.00531384
0.321429 1.17426 0.778608 -0.00313752 -0.100687 0.0048013
0 1.21606 0.833795 0.0456275 -0.13138 0.00709054
0.0535714 1.21606 0.829115 0.0339262 -0.127855 0.00682997
0.107143 1.21606 0.823597 0.0242578 -0.122981 0.00661534
0.160714 1.21426 0.816798 0.0160219 -0.118023 0.00637882
0.214286 1.2092 0.808062 0.00900429 -0.112236 0.00606775
0.267857 1.19962 0.797457 0.00454783 -0.106753 0.00565104
0.321429 1.18414 0.783524 -0.00151457 -0.1004 0.00512865
0 1.22607 0.836236 0.04635 -0.129392 0.00747429
0.0535714 1.22607 0.831914 0.0348635 -0.126156 0.00720614
0.107143 1.22607 0.826729 0.025317 -0.12156 0.00698457
0.160714 1.22428 0.820253 0.0172365 -0.11687 0.00674177
0.214286 1.21924 0.811927 0.0102695 -0.111343 0.0064257
0.267857 1.20971 0.801636 0.00574666 -0.106208 0.00600227
0.321429 1.19432 0.788425 6.39981e-05 -0.100087 0.00547048
0 1.23639 0.838778 0.0470234 -0.127381 0.0078688
0.0535714 1.23639 0.834808 0.0357628 -0.124431 0.00759375
0.107143 1.23639 0.829955 0.0263501 -0.120115 0.00736587
0.160714 1.23461 0.823804 0.0184138 -0.115692 0.00711747
0.214286 1.2296 0.815878 0.0115203 -0.110428 0.00679713
0.267857 1.22012 0.805909 0.00690317 -0.105625 0.00636816
0.321429 1.20482 0.793328 0.0015796 -0.0997433 0.00582767
0 1.24702 0.841425 0.0476464 -0.12535 0.00827417
0.0535714 1.24702 0.837801 0.0366212 -0.12268 0.00799299
0.107143 1.24702 0.833279 0.0273538 -0.118645 0.00775952
0.160714 1.24525 0.827453 0.0195529 -0.114491 0.00750632
0.214286 1.24027 0.819917 0.0127503 -0.109489 0.00718254
0.267857 1.23085 0.810277 0.00802738 -0.105005 0.00674932
0.321429 1.21564 0.798247 0.00302229 -0.0993681 0.00620113
0 1.25798 0.844185 0.0482176 -0.123301 0.00869049
0.0535714 1.25798 0.840898 0.0374365 -0.120906 0.00840408
0.107143 1.25798 0.836706 0.0283246 -0.117152 0.00816588
0.160714 1.25622 0.831204 0.0206533 -0.113264 0.00790877
0.214286 1.25128 0.824046 0.0139539 -0.108524 0.00758246
0.267857 1.24192 0.814744 0.0091262 -0.104348 0.00714636
0.321429 1.2268 0.803198 0.00438872 -0.0989625 0.0065916
0 1.26928 0.847063 0.0487358 -0.121237 0.00911794
0.0535714 1.26928 0.844106 0.0382063 -0.11911 0.00882732
0.107143 1.26928 0.840238 0.0292593 -0.115636 0.00858532
0.160714 1.26753 0.835057 0.021714 -0.112014 0.00832528
0.214286 1.26262 0.828268 0.0151263 -0.107534 0.00799744
0.267857 1.25332 0.819309 0.0102039 -0.103651 0.00755981
0.321429 1.23829 0.808195 0.00568 -0.0985283 0.00699965
0 1.28093 0.850066 0.0491999 -0.119159 0.0095567
0.0535714 1.28093 0.847429 0.0389287 -0.117295 0.00926304
0.107143 1.28093 0.843881 0.0301551 -0.114097 0.0090183
0.160714 1.27919 0.839018 0.0227342 -0.110738 0.00875635
0.214286 1.27431 0.832585 0.0162632 -0.106518 0.00842796
0.267857 1.26507 0.823974 0.0112624 -0.102912 0.00799005
0.321429 1.25014 0.813252 0.0069001 -0.098066 0.00742561
0 1.29293 0.8532 0.0496091 -0.11707 0.0100071
0.0535714 1.29293 0.850873 0.0396018 -0.115461 0.00971162
0.107143 1.29293 0.847637 0.0310091 -0.112536 0.00946525
0.160714 1.29121 0.843089 0.023713 -0.109436 0.00920239
0.214286 1.28636 0.837001 0.0173613 -0.105476 0.00887434
0.267857 1.27718 0.82874 0.0123023 -0.102132 0.0084372
0.321429 1.26236 0.818379 0.00805451 -0.0975745 0.00786954
0 1.3053 0.85647 0.0499627 -0.114972 0.0104694
0.0535714 1.3053 0.854442 0.0402239 -0.113611 0.0101735
0.107143 1.3053 0.851511 0.0318189 -0.110954 0.00992658
0.160714 1.30359 0.847272 0.0246492 -0.108108 0.00966369
0.214286 1.29878 0.841518 0.0184178 -0.10441 0.00933666
0.267857 1.28966 0.833607 0.0133226 -0.10131 0.00890109
0.321429 1.27495 0.823586 0.00914945 -0.0970513 0.00833121
0 1.31806 0.859884 0.0502603 -0.112868 0.010944
0.0535714 1.31806 0.858142 0.0407938 -0.111746 0.010649
0.107143 1.31806 0.855506 0.0325822 -0.109352 0.0104025
0.160714 1.31636 0.851571 0.0255418 -0.106753 0.0101402
0.214286 1.31158 0.846139 0.0194304 -0.103318 0.00981464
0.267857 1.30253 0.838577 0.0143212 -0.100448 0.00938115
0.321429 1.28793 0.828882 0.0101912 -0.0964929 0.00880999
0 1.3312 0.863445 0.0505015 -0.11076 0.0114311
0.0535714 1.3312 0.861978 0.0413103 -0.109867 0.0111382
0.107143 1.3312 0.859627 0.033297 -0.107731 0.0108928
0.160714 1.32952 0.855988 0.0263898 -0.105374 0.0106315
0.214286 1.32478 0.850868 0.0203974 -0.1022 0.0103075
0.267857 1.3158 0.84365 0.0152956 -0.0995486 0.00987639
0.321429 1.3013 0.834273 0.0111856 -0.0958961 0.00930489
0 1.34475 0.86716 0.0506863 -0.108649 0.0119308
0.0535714 1.34475 0.865954 0.0417726 -0.107977 0.0116407
0.107143 1.34475 0.863878 0.0339617 -0.106093 0.0113968
0.160714 1.34308 0.860527 0.027192 -0.103969 0.0111365
0.214286 1.33838 0.855707 0.0213176 -0.101056 0.010814
0.267857 1.32947 0.848828 0.0162427 -0.0986134 0.0103853
0.321429 1.31509 0.839763 0.0121379 -0.0952583 0.00981449
0 1.35872 0.871032 0.0508149 -0.106538 0.0124426
0.0535714 1.35872 0.870075 0.04218 -0.106077 0.0121556
0.107143 1.35872 0.868261 0.0345749 -0.104439 0.0119129
0.160714 1.35706 0.865189 0.0279475 -0.102542 0.0116534
0.214286 1.3524 0.86066 0.02219 -0.0998857 0.0113321
0.267857 1.34357 0.854111 0.0171592 -0.0976448 0.010906
0.321429 1.3293 0.845358 0.0130523 -0.0945778 0.010337
0 1.37312 0.875067 0.0508878 -0.104429 0.0129648
0.0535714 1.37312 0.874343 0.0425324 -0.104169 0.0126808
0.107143 1.37312 0.872781 0.0351357 -0.102769 0.012439
0.160714 1.37147 0.869978 0.0286552 -0.101092 0.0121797
0.214286 1.36685 0.865729 0.0230141 -0.0986889 0.0118593
0.267857 1.35809 0.859501 0.0180418 -0.0966448 0.0114361
0.321429 1.34395 0.851059 0.0139319 -0.0938543 0.0108701
0 1.38796 0.879268 0.0509054 -0.102323 0.0134948
0.0535714 1.38796 0.878764 0.0428294 -0.102255 0.0132134
0.107143 1.38796 0.87744 0.0356433 -0.101086 0.0129718
0.160714 1.38633 0.874897 0.0293141 -0.0996222 0.0127124
0.214286 1.38174 0.870918 0.0237895 -0.0974659 0.0123928
0.267857 1.37307 0.865001 0.0188876 -0.0956151 0.0119728
0.321429 1.35905 0.856869 0.0147786 -0.0930879 0.0114115
0 1.40326 0.883639 0.0508688 -0.100223 0.014029
0.0535714 1.40326 0.883341 0.0430713 -0.100336 0.0137495
0.107143 1.40326 0.882243 0.0360971 -0.0993903 0.0135077
0.160714 1.40164 0.879948 0.0299233 -0.0981334 0.013248
0.214286 1.3971 0.87623 0.0245159 -0.0962171 0.0129293
0.267857 1.3885 0.870614 0.0196939 -0.094557 0.0125133
0.321429 1.37462 0.862791 0.0155931 -0.0922796 0.0119583
0 1.41902 0.888183 0.0507787 -0.0981297 0.0145628
0.0535714 1.41902 0.888076 0.0432582 -0.0984159 0.0142849
0.107143 1.41902 0.887193 0.036497 -0.0976835 0.0140426
0.160714 1.41742 0.885135 0.030482 -0.0966272 0.0137827
0.214286 1.41293 0.881668 0.0251931 -0.0949433 0.0134655
0.267857 1.40441 0.876343 0.0204582 -0.0934714 0.0130543
0.321429 1.39066 0.868826 0.0163755 -0.0914307 0.0125077
0 1.43527 0.892904 0.0506363 -0.096045 0.0150916
0.0535714 1.43527 0.892975 0.0433905 -0.0964948 0.0148154
0.107143 1.43527 0.892293 0.0368426 -0.0959671 0.0145727
0.160714 1.43369 0.890461 0.0309896 -0.0951051 0.0143129
0.214286 1.42924 0.887237 0.0258207 -0.0936451 0.013998
0.267857 1.42081 0.88219 0.0211787 -0.0923592 0.0135928
0.321429 1.4072 0.874977 0.0171248 -0.0905427 0.0130566
0 1.45203 0.897805 0.0504428 -0.0939701 0.0156105
0.0535714 1.45203 0.89804 0.0434689 -0.0945746 0.0153364
0.107143 1.45203 0.897547 0.0371342 -0.0942424 0.0150938
0.160714 1.45046 0.895929 0.0314454 -0.0935683 0.0148348
0.214286 1.44605 0.892938 0.0263987 -0.0923237 0.0145232
0.267857 1.43771 0.888161 0.0218538 -0.091221 0.0141255
0.321429 1.42425 0.881245 0.0178398 -0.0896172 0.0136018
0 1.46929 0.90289 0.0501995 -0.0919062 0.0161151
0.0535714 1.46929 0.903276 0.043494 -0.0926569 0.0158439
0.107143 1.46929 0.902959 0.0373721 -0.0925106 0.0156021
0.160714 1.46774 0.901544 0.0318493 -0.092018 0.0153449
0.214286 1.46339 0.898776 0.0269269 -0.09098 0.0150378
0.267857 1.45514 0.894258 0.0224824 -0.0900571 0.0146492
0.321429 1.44182 0.887635 0.0185187 -0.0886561 0.0141402
0 1.48709 0.908161 0.049908 -0.0898545 0.016601
0.0535714 1.48709 0.908684 0.0434668 -0.0907429 0.0163338
0.107143 1.48709 0.908532 0.0375565 -0.0907731 0.0160938
0.160714 1.48556 0.90731 0.032201 -0.0904554 0.0158396
0.214286 1.48125 0.904755 0.0274051 -0.0896152 0.0155385
0.267857 1.4731 0.900485 0.0230636 -0.0888681 0.0151606
0.321429 1.45993 0.894149 0.0191598 -0.087661 0.0146684
0 1.50544 0.913621 0.0495697 -0.087816 0.0170644
0.0535714 1.50544 0.91427 0.0433882 -0.0888339 0.0168025
0.107143 1.50544 0.91427 0.0376881 -0.0890312 0.0165656
0.160714 1.50392 0.913228 0.0325006 -0.0888815 0.0163156
0.214286 1.49967 0.910878 0.0278333 -0.0882305 0.0160219
0.267857 1.49161 0.906847 0.0235967 -0.0876543 0.0156565
0.321429 1.47859 0.90079 0.0197614 -0.0866334 0.0151834
0 1.52435 0.919273 0.0491861 -0.0857916 0.0175015
0.0535714 1.52435 0.920035 0.0432593 -0.0869308 0.0172464
0.107143 1.52435 0.920177 0.0377676 -0.087286 0.0170139
0.160714 1.52285 0.919304 0.0327483 -0.0872974 0.0167695
0.214286 1.51865 0.917148 0.0282114 -0.086827 0.016485
0.267857 1.51069 0.913347 0.0240816 -0.0864162 0.0161337
0.321429 1.49784 0.907562 0.0203217 -0.0855747 0.0156817
0 1.54384 0.925118 0.048759 -0.083782 0.017909
0.0535714 1.54384 0.925982 0.0430815 -0.0850348 0.0176623
0.107143 1.54384 0.926254 0.0377958 -0.0855387 0.0174358
0.160714 1.54236 0.92554 0.0329444 -0.085704 0.0171985
0.214286 1.53821 0.923569 0.0285395 -0.085406 0.0169245
0.267857 1.53036 0.919989 0.0245179 -0.0851544 0.0165891
0.321429 1.51767 0.914467 0.0208394 -0.0844861 0.0161603
0 1.56393 0.931158 0.0482901 -0.0817881 0.018284
0.0535714 1.56393 0.932113 0.042856 -0.0831467 0.0180473
0.107143 1.56393 0.932504 0.0377736 -0.0837906 0.0178281
0.160714 1.56247 0.931938 0.0330894 -0.0841023 0.0175994
0.214286 1.55838 0.930143 0.0288178 -0.0839688 0.0173375
0.267857 1.55063 0.926775 0.0249057 -0.0838698 0.0170196
0.321429 1.53811 0.92151 0.0213134 -0.0833687 0.0166158
0 1.58464 0.937394 0.047781 -0.0798106 0.0186238
0.0535714 1.58464 0.93843 0.0425843 -0.0812675 0.0183985
0.107143 1.58464 0.938928 0.0377021 -0.0820427 0.0181883
0.160714 1.5832 0.938501 0.0331841 -0.0824934 0.0179696
0.214286 1.57917 0.936872 0.0290466 -0.0825165 0.0177213
0.267857 1.57153 0.933709 0.0252451 -0.0825632 0.0174224
0.321429 1.55919 0.928692 0.0217425 -0.0822234 0.0170453
0 1.60599 0.943824 0.0472335 -0.0778502 0.018926
0.0535714 1.60599 0.944931 0.0422679 -0.0793979 0.0187135
0.107143 1.60599 0.945528 0.0375825 -0.0802962 0.0185137
0.160714 1.60457 0.945229 0.0332292 -0.0808783 0.0183063
0.214286 1.60059 0.943759 0.0292263 -0.0810503 0.0180729
0.267857 1.59307 0.940791 0.0255364 -0.0812355 0.0177945
0.321429 1.58091 0.936016 0.0221263 -0.0810512 0.0174455
0 1.62799 0.950448 0.0466492 -0.0759075 0.0191884
0.0535714 1.62799 0.951617 0.0419082 -0.077539 0.01899
0.107143 1.62799 0.952303 0.0374159 -0.0785522 0.0188018
0.160714 1.6266 0.952122 0.0332255 -0.0792581 0.0186071
0.214286 1.62268 0.950802 0.0293574 -0.0795714 0.0183899
0.267857 1.61527 0.948024 0.0257798 -0.079888 0.0181331
0.321429 1.6033 0.943484 0.0224644 -0.0798531 0.0178136
0 1.65067 0.957262 0.0460296 -0.0739834 0.0194092
0.0535714 1.65067 0.958485 0.0415068 -0.0756916 0.0192259
0.107143 1.65067 0.959251 0.0372035 -0.0768117 0.0190505
0.160714 1.6493 0.959181 0.033174 -0.0776339 0.0188696
0.214286 1.64544 0.958003 0.0294404 -0.0780811 0.0186696
0.267857 1.63815 0.955407 0.0259757 -0.078522 0.0184356
0.321429 1.62637 0.951097 0.0227565 -0.0786298 0.0181465
0 1.67405 0.964263 0.0453763 -0.0720784 0.0195868
0.0535714 1.67405 0.965532 0.0410649 -0.0738565 0.0194194
0.107143 1.67405 0.966369 0.0369466 -0.075076 0.0192578
0.160714 1.6727 0.966402 0.0330757 -0.076007 0.0190917
0.214286 1.66891 0.965359 0.0294759 -0.0765805 0.0189099
0.267857 1.66174 0.962939 0.0261246 -0.0771386 0.0186994
0.321429 1.65016 0.958853 0.0230026 -0.0773826 0.0184416
0 1.69814 0.971444 0.0446906 -0.0701934 0.0197196
0.0535714 1.69814 0.972753 0.040584 -0.0720347 0.0195689
0.107143 1.69814 0.973655 0.0366462 -0.0733461 0.0194218
0.160714 1.69682 0.973782 0.0329315 -0.0743786 0.0192713
0.214286 1.6931 0.972867 0.0294646 -0.075071 0.0191083
0.267857 1.68605 0.970618 0.0262269 -0.0757395 0.018922
0.321429 1.67468 0.966751 0.0232029 -0.0761125 0.0186961
0 1.72298 0.978798 0.0439736 -0.0683291 0.0198065
0.0535714 1.72298 0.980142 0.0400651 -0.0702272 0.0196727
0.107143 1.72298 0.9811 0.0363034 -0.0716233 0.0195409
0.160714 1.72168 0.981315 0.0327422 -0.0727501 0.0194064
0.214286 1.71803 0.980523 0.029407 -0.073554 0.0192629
0.267857 1.71112 0.97844 0.0262829 -0.0743262 0.0191012
0.321429 1.69995 0.974788 0.0233574 -0.0748209 0.0189074
0 1.74858 0.986316 0.0432262 -0.0664863 0.0198464
0.0535714 1.74858 0.987688 0.0395093 -0.0684349 0.0197296
0.107143 1.74858 0.988698 0.0359192 -0.0699087 0.0196133
0.160714 1.74731 0.988995 0.0325086 -0.0711227 0.0194955
0.214286 1.74373 0.98832 0.0293039 -0.0720308 0.0193716
0.267857 1.73695 0.986398 0.0262931 -0.0729001 0.0192347
0.321429 1.726 0.982959 0.0234664 -0.073509 0.019073
0 1.77497 0.993986 0.0424492 -0.064666 0.0198383
0.0535714 1.77497 0.995383 0.0389175 -0.0666591 0.0197386
0.107143 1.77497 0.996439 0.0354942 -0.0682037 0.0196379
0.160714 1.77372 0.996813 0.0322314 -0.0694983 0.0195368
0.214286 1.77022 0.99625 0.0291555 -0.0705031 0.0194327
0.267857 1.76358 0.994486 0.0262576 -0.0714633 0.0193205
0.321429 1.75286 0.991257 0.02353 -0.0721789 0.0191907
0 1.80217 1.0018 0.041643 -0.0628689 0.0197814
0.0535714 1.80217 1.00321 0.0382901 -0.0649007 0.0196984
0.107143 1.80217 1.00431 0.0350293 -0.0665094 0.0196134
0.160714 1.80095 1.00476 0.0319111 -0.0678779 0.0195289
0.214286 1.79752 1.0043 0.0289625 -0.0689721 0.0194445
0.267857 1.79102 1.00269 0.0261769 -0.0700169 0.0193566
0.321429 1.78053 0.999673 0.0235484 -0.0708314 0.0192581
0 1.83021 1.00973 0.0408077 -0.0610966 0.0196751
0.0535714 1.83021 1.01117 0.0376276 -0.0631615 0.0196083
0.107143 1.83021 1.0123 0.0345245 -0.0648281 0.0195386
0.160714 1.82902 1.01281 0.0315479 -0.0662641 0.0194705
0.214286 1.82566 1.01246 0.0287247 -0.0674407 0.0194054
0.267857 1.81931 1.01101 0.0260506 -0.068564 0.0193413
0.321429 1.80906 1.0082 0.0235214 -0.0694701 0.0192733
0 1.85911 1.01777 0.0399434 -0.0593489 0.0195187
0.0535714 1.85911 1.01922 0.03693 -0.0614415 0.0194674
0.107143 1.85911 1.02039 0.0339801 -0.0631594 0.0194125
0.160714 1.85794 1.02097 0.031142 -0.0646565 0.0193604
0.214286 1.85467 1.02072 0.0284424 -0.0659085 0.0193139
0.267857 1.84848 1.01942 0.0258791 -0.0671041 0.0192729
0.321429 1.83847 1.01681 0.023449 -0.0680943 0.0192343
0 1.8889 1.02589 0.0390494 -0.0576294 0.0193116
0.0535714 1.8889 1.02736 0.0361968 -0.0597449 0.0192749
0.107143 1.8889 1.02856 0.0333957 -0.0615086 0.0192341
0.160714 1.88776 1.0292 0.0306929 -0.0630612 0.0191973
0.214286 1.88457 1.02906 0.0281148 -0.0643818 0.0191687
0.267857 1.87853 1.0279 0.0256613 -0.0656443 0.0191497
0.321429 1.86878 1.0255 0.0233303 -0.0667113 0.0191392
0 1.9196 1.03408 0.0381255 -0.0559343 0.0190531
0.0535714 1.9196 1.03556 0.0354282 -0.0580673 0.0190299
0.107143 1.9196 1.03679 0.0327715 -0.0598702 0.0190025
0.160714 1.9185 1.03749 0.0302009 -0.0614719 0.0189801
0.214286 1.91539 1.03745 0.0277425 -0.0628542 0.0189684
0.267857 1.90952 1.03644 0.0253977 -0.0641771 0.0189702
0.321429 1.90003 1.03425 0.0231656 -0.0653143 0.0189862
0 1.95125 1.04231 0.0371695 -0.0542752 0.0187424
0.0535714 1.95125 1.0438 0.0346218 -0.0564224 0.0187316
0.107143 1.95125 1.04506 0.0321052 -0.0582598 0.0187165
0.160714 1.95018 1.04582 0.0296635 -0.0599059 0.0187074
0.214286 1.94716 1.04588 0.0273226 -0.0613439 0.0187115